# Cloudflare Pages Headers
# Forces browsers to revalidate HTML and check for new bundles

# HTML files - no cache, always check for updates
/*.html
  Cache-Control: no-cache, no-store, must-revalidate

/
  Cache-Control: no-cache, no-store, must-revalidate

/index.html
  Cache-Control: no-cache, no-store, must-revalidate

# JavaScript and CSS - cache with revalidation (hashed filenames handle versioning)
/assets/*
  Cache-Control: public, max-age=31536000, immutable

/js/*
  Cache-Control: public, max-age=31536000, immutable

# Service worker and manifest - no cache
/sw.js
  Cache-Control: no-cache, no-store, must-revalidate

/manifest.json
  Cache-Control: no-cache, must-revalidate
